/*--------------------------------*- C++ -*----------------------------------*\\
| =========                 |                                                 |
| \\      /  F ield         | OpenFOAM: The Open Source CFD Toolbox           |
|  \\    /   O peration     | Version:  v1706                                 |
|   \\  /    A nd           | Web:      www.OpenFOAM.com                      |
|    \\/     M anipulation  |                                                 |
\\*---------------------------------------------------------------------------*/
FoamFile
{
    version     2.0;
    format      ascii;
    class       volVectorField;
    location    "0";
    object      U;
}
// * * * * * * * * * * * * * * * * * * * * * * * * * * * * * * * * * * * * * //

dimensions      [0 1 -1 0 0 0 0];


internalField   nonuniform List<vector>
1089
(
(0.094626 -0.094626 0)
(0.28046 -0.091206 0)
(0.45615 -0.084489 0)
(0.61536 -0.074719 0)
(0.75233 -0.062248 0)
(0.8621 -0.047528 0)
(0.94072 -0.03109 0)
(0.98534 -0.013528 0)
(0.99434 0.0045229 0)
(0.96741 0.02241 0)
(0.90551 0.039488 0)
(0.81089 0.055138 0)
(0.68695 0.068795 0)
(0.53819 0.079966 0)
(0.36998 0.088247 0)
(0.18839 0.093338 0)
(8.9387e-11 0.095056 0)
(-0.18839 0.093338 0)
(-0.36998 0.088247 0)
(-0.53819 0.079966 0)
(-0.68695 0.068795 0)
(-0.81089 0.055138 0)
(-0.90551 0.039488 0)
(-0.96741 0.02241 0)
(-0.99434 0.0045229 0)
(-0.98534 -0.013528 0)
(-0.94072 -0.03109 0)
(-0.8621 -0.047528 0)
(-0.75233 -0.062248 0)
(-0.61536 -0.074719 0)
(-0.45615 -0.084489 0)
(-0.28046 -0.091206 0)
(-0.094626 -0.094626 0)
(0.091206 -0.28046 0)
(0.27032 -0.27032 0)
(0.43967 -0.25041 0)
(0.59312 -0.22146 0)
(0.72514 -0.1845 0)
(0.83095 -0.14087 0)
(0.90672 -0.092146 0)
(0.94973 -0.040095 0)
(0.95841 0.013405 0)
(0.93245 0.066421 0)
(0.87279 0.11704 0)
(0.78158 0.16342 0)
(0.66213 0.2039 0)
(0.51874 0.23701 0)
(0.35661 0.26155 0)
(0.18159 0.27664 0)
(8.6156e-11 0.28173 0)
(-0.18159 0.27664 0)
(-0.35661 0.26155 0)
(-0.51874 0.23701 0)
(-0.66213 0.2039 0)
(-0.78158 0.16342 0)
(-0.87279 0.11704 0)
(-0.93245 0.066421 0)
(-0.95841 0.013405 0)
(-0.94973 -0.040095 0)
(-0.90672 -0.092146 0)
(-0.83095 -0.14087 0)
(-0.72514 -0.1845 0)
(-0.59312 -0.22146 0)
(-0.43967 -0.25041 0)
(-0.27032 -0.27032 0)
(-0.091206 -0.28046 0)
(0.084489 -0.45615 0)
(0.25041 -0.43967 0)
(0.40729 -0.40729 0)
(0.54944 -0.36019 0)
(0.67174 -0.30007 0)
(0.76975 -0.22911 0)
(0.83995 -0.14987 0)
(0.87979 -0.065212 0)
(0.88783 0.021803 0)
(0.86378 0.10803 0)
(0.80851 0.19035 0)
(0.72402 0.2658 0)
(0.61337 0.33163 0)
(0.48054 0.38548 0)
(0.33035 0.4254 0)
(0.16821 0.44995 0)
(7.9812e-11 0.45823 0)
(-0.16821 0.44995 0)
(-0.33035 0.4254 0)
(-0.48054 0.38548 0)
(-0.61337 0.33163 0)
(-0.72402 0.2658 0)
(-0.80851 0.19035 0)
(-0.86378 0.10803 0)
(-0.88783 0.021803 0)
(-0.87979 -0.065212 0)
(-0.83995 -0.14987 0)
(-0.76975 -0.22911 0)
(-0.67174 -0.30007 0)
(-0.54944 -0.36019 0)
(-0.40729 -0.40729 0)
(-0.25041 -0.43967 0)
(-0.084489 -0.45615 0)
(0.074719 -0.61536 0)
(0.22146 -0.59312 0)
(0.36019 -0.54944 0)
(0.48591 -0.48591 0)
(0.59406 -0.40481 0)
(0.68074 -0.30908 0)
(0.74282 -0.20218 0)
(0.77805 -0.087973 0)
(0.78516 0.029413 0)
(0.7639 0.14574 0)
(0.71502 0.25679 0)
(0.6403 0.35857 0)
(0.54244 0.44738 0)
(0.42497 0.52003 0)
(0.29215 0.57388 0)
(0.14876 0.60699 0)
(7.0583e-11 0.61816 0)
(-0.14876 0.60699 0)
(-0.29215 0.57388 0)
(-0.42497 0.52003 0)
(-0.54244 0.44738 0)
(-0.6403 0.35857 0)
(-0.71502 0.25679 0)
(-0.7639 0.14574 0)
(-0.78516 0.029413 0)
(-0.77805 -0.087973 0)
(-0.74282 -0.20218 0)
(-0.68074 -0.30908 0)
(-0.59406 -0.40481 0)
(-0.48591 -0.48591 0)
(-0.36019 -0.54944 0)
(-0.22146 -0.59312 0)
(-0.074719 -0.61536 0)
(0.062248 -0.75233 0)
(0.1845 -0.72514 0)
(0.30007 -0.67174 0)
(0.40481 -0.59406 0)
(0.49491 -0.49491 0)
(0.56713 -0.37787 0)
(0.61884 -0.24718 0)
(0.6482 -0.10755 0)
(0.65412 0.03596 0)
(0.6364 0.17817 0)
(0.59568 0.31395 0)
(0.53343 0.43838 0)
(0.45191 0.54696 0)
(0.35404 0.63578 0)
(0.24339 0.70161 0)
(0.12393 0.74209 0)
(5.8802e-11 0.75575 0)
(-0.12393 0.74209 0)
(-0.24339 0.70161 0)
(-0.35404 0.63578 0)
(-0.45191 0.54696 0)
(-0.53343 0.43838 0)
(-0.59568 0.31395 0)
(-0.6364 0.17817 0)
(-0.65412 0.03596 0)
(-0.6482 -0.10755 0)
(-0.61884 -0.24718 0)
(-0.56713 -0.37787 0)
(-0.49491 -0.49491 0)
(-0.40481 -0.59406 0)
(-0.30007 -0.67174 0)
(-0.1845 -0.72514 0)
(-0.062248 -0.75233 0)
(0.047528 -0.8621 0)
(0.14087 -0.83095 0)
(0.22911 -0.76975 0)
(0.30908 -0.68074 0)
(0.37787 -0.56713 0)
(0.43301 -0.43301 0)
(0.4725 -0.28325 0)
(0.49491 -0.12325 0)
(0.49943 0.041207 0)
(0.48591 0.20417 0)
(0.45482 0.35976 0)
(0.40729 0.50234 0)
(0.34504 0.62677 0)
(0.27032 0.72855 0)
(0.18583 0.80399 0)
(0.094626 0.85038 0)
(4.4897e-11 0.86603 0)
(-0.094626 0.85038 0)
(-0.18583 0.80399 0)
(-0.27032 0.72855 0)
(-0.34504 0.62677 0)
(-0.40729 0.50234 0)
(-0.45482 0.35976 0)
(-0.48591 0.20417 0)
(-0.49943 0.041207 0)
(-0.49491 -0.12325 0)
(-0.4725 -0.28325 0)
(-0.43301 -0.43301 0)
(-0.37787 -0.56713 0)
(-0.30908 -0.68074 0)
(-0.22911 -0.76975 0)
(-0.14087 -0.83095 0)
(-0.047528 -0.8621 0)
(0.03109 -0.94072 0)
(0.092146 -0.90672 0)
(0.14987 -0.83995 0)
(0.20218 -0.74282 0)
(0.24718 -0.61884 0)
(0.28325 -0.4725 0)
(0.30908 -0.30908 0)
(0.32374 -0.13449 0)
(0.3267 0.044965 0)
(0.31785 0.22279 0)
(0.29751 0.39257 0)
(0.26642 0.54815 0)
(0.2257 0.68393 0)
(0.17683 0.79499 0)
(0.12156 0.87731 0)
(0.061898 0.92792 0)
(2.9368e-11 0.945 0)
(-0.061898 0.92792 0)
(-0.12156 0.87731 0)
(-0.17683 0.79499 0)
(-0.2257 0.68393 0)
(-0.26642 0.54815 0)
(-0.29751 0.39257 0)
(-0.31785 0.22279 0)
(-0.3267 0.044965 0)
(-0.32374 -0.13449 0)
(-0.30908 -0.30908 0)
(-0.28325 -0.4725 0)
(-0.24718 -0.61884 0)
(-0.20218 -0.74282 0)
(-0.14987 -0.83995 0)
(-0.092146 -0.90672 0)
(-0.03109 -0.94072 0)
(0.013528 -0.98534 0)
(0.040095 -0.94973 0)
(0.065212 -0.87979 0)
(0.087973 -0.77805 0)
(0.10755 -0.6482 0)
(0.12325 -0.49491 0)
(0.13449 -0.32374 0)
(0.14087 -0.14087 0)
(0.14215 0.047098 0)
(0.1383 0.23336 0)
(0.12945 0.41119 0)
(0.11593 0.57415 0)
(0.098208 0.71637 0)
(0.076941 0.83269 0)
(0.052893 0.91892 0)
(0.026933 0.97193 0)
(1.2779e-11 0.98982 0)
(-0.026933 0.97193 0)
(-0.052893 0.91892 0)
(-0.076941 0.83269 0)
(-0.098208 0.71637 0)
(-0.11593 0.57415 0)
(-0.12945 0.41119 0)
(-0.1383 0.23336 0)
(-0.14215 0.047098 0)
(-0.14087 -0.14087 0)
(-0.13449 -0.32374 0)
(-0.12325 -0.49491 0)
(-0.10755 -0.6482 0)
(-0.087973 -0.77805 0)
(-0.065212 -0.87979 0)
(-0.040095 -0.94973 0)
(-0.013528 -0.98534 0)
(-0.0045229 -0.99434 0)
(-0.013405 -0.95841 0)
(-0.021803 -0.88783 0)
(-0.029413 -0.78516 0)
(-0.03596 -0.65412 0)
(-0.041207 -0.49943 0)
(-0.044965 -0.3267 0)
(-0.047098 -0.14215 0)
(-0.047528 0.047528 0)
(-0.046241 0.23549 0)
(-0.043282 0.41494 0)
(-0.038759 0.5794 0)
(-0.032835 0.72291 0)
(-0.025725 0.8403 0)
(-0.017684 0.92732 0)
(-0.0090049 0.98082 0)
(-4.2725e-12 0.99887 0)
(0.0090049 0.98082 0)
(0.017684 0.92732 0)
(0.025725 0.8403 0)
(0.032835 0.72291 0)
(0.038759 0.5794 0)
(0.043282 0.41494 0)
(0.046241 0.23549 0)
(0.047528 0.047528 0)
(0.047098 -0.14215 0)
(0.044965 -0.3267 0)
(0.041207 -0.49943 0)
(0.03596 -0.65412 0)
(0.029413 -0.78516 0)
(0.021803 -0.88783 0)
(0.013405 -0.95841 0)
(0.0045229 -0.99434 0)
(-0.02241 -0.96741 0)
(-0.066421 -0.93245 0)
(-0.10803 -0.86378 0)
(-0.14574 -0.7639 0)
(-0.17817 -0.6364 0)
(-0.20417 -0.48591 0)
(-0.22279 -0.31785 0)
(-0.23336 -0.1383 0)
(-0.23549 0.046241 0)
(-0.22911 0.22911 0)
(-0.21445 0.40371 0)
(-0.19204 0.56371 0)
(-0.16269 0.70333 0)
(-0.12746 0.81754 0)
(-0.087623 0.9022 0)
(-0.044618 0.95425 0)
(-2.1169e-11 0.97181 0)
(0.044618 0.95425 0)
(0.087623 0.9022 0)
(0.12746 0.81754 0)
(0.16269 0.70333 0)
(0.19204 0.56371 0)
(0.21445 0.40371 0)
(0.22911 0.22911 0)
(0.23549 0.046241 0)
(0.23336 -0.1383 0)
(0.22279 -0.31785 0)
(0.20417 -0.48591 0)
(0.17817 -0.6364 0)
(0.14574 -0.7639 0)
(0.10803 -0.86378 0)
(0.066421 -0.93245 0)
(0.02241 -0.96741 0)
(-0.039488 -0.90551 0)
(-0.11704 -0.87279 0)
(-0.19035 -0.80851 0)
(-0.25679 -0.71502 0)
(-0.31395 -0.59568 0)
(-0.35976 -0.45482 0)
(-0.39257 -0.29751 0)
(-0.41119 -0.12945 0)
(-0.41494 0.043282 0)
(-0.40371 0.21445 0)
(-0.37787 0.37787 0)
(-0.33839 0.52764 0)
(-0.28667 0.65833 0)
(-0.22459 0.76523 0)
(-0.15439 0.84447 0)
(-0.078618 0.89319 0)
(-3.7301e-11 0.90963 0)
(0.078618 0.89319 0)
(0.15439 0.84447 0)
(0.22459 0.76523 0)
(0.28667 0.65833 0)
(0.33839 0.52764 0)
(0.37787 0.37787 0)
(0.40371 0.21445 0)
(0.41494 0.043282 0)
(0.41119 -0.12945 0)
(0.39257 -0.29751 0)
(0.35976 -0.45482 0)
(0.31395 -0.59568 0)
(0.25679 -0.71502 0)
(0.19035 -0.80851 0)
(0.11704 -0.87279 0)
(0.039488 -0.90551 0)
(-0.055138 -0.81089 0)
(-0.16342 -0.78158 0)
(-0.2658 -0.72402 0)
(-0.35857 -0.6403 0)
(-0.43838 -0.53343 0)
(-0.50234 -0.40729 0)
(-0.54815 -0.26642 0)
(-0.57415 -0.11593 0)
(-0.5794 0.038759 0)
(-0.56371 0.19204 0)
(-0.52764 0.33839 0)
(-0.4725 0.4725 0)
(-0.40029 0.58954 0)
(-0.3136 0.68526 0)
(-0.21559 0.75623 0)
(-0.10978 0.79986 0)
(-5.2085e-11 0.81458 0)
(0.10978 0.79986 0)
(0.21559 0.75623 0)
(0.3136 0.68526 0)
(0.40029 0.58954 0)
(0.4725 0.4725 0)
(0.52764 0.33839 0)
(0.56371 0.19204 0)
(0.5794 0.038759 0)
(0.57415 -0.11593 0)
(0.54815 -0.26642 0)
(0.50234 -0.40729 0)
(0.43838 -0.53343 0)
(0.35857 -0.6403 0)
(0.2658 -0.72402 0)
(0.16342 -0.78158 0)
(0.055138 -0.81089 0)
(-0.068795 -0.68695 0)
(-0.2039 -0.66213 0)
(-0.33163 -0.61337 0)
(-0.44738 -0.54244 0)
(-0.54696 -0.45191 0)
(-0.62677 -0.34504 0)
(-0.68393 -0.2257 0)
(-0.71637 -0.098208 0)
(-0.72291 0.032835 0)
(-0.70333 0.16269 0)
(-0.65833 0.28667 0)
(-0.58954 0.40029 0)
(-0.49943 0.49943 0)
(-0.39128 0.58053 0)
(-0.26898 0.64065 0)
(-0.13697 0.67761 0)
(-6.4986e-11 0.69008 0)
(0.13697 0.67761 0)
(0.26898 0.64065 0)
(0.39128 0.58053 0)
(0.49943 0.49943 0)
(0.58954 0.40029 0)
(0.65833 0.28667 0)
(0.70333 0.16269 0)
(0.72291 0.032835 0)
(0.71637 -0.098208 0)
(0.68393 -0.2257 0)
(0.62677 -0.34504 0)
(0.54696 -0.45191 0)
(0.44738 -0.54244 0)
(0.33163 -0.61337 0)
(0.2039 -0.66213 0)
(0.068795 -0.68695 0)
(-0.079966 -0.53819 0)
(-0.23701 -0.51874 0)
(-0.38548 -0.48054 0)
(-0.52003 -0.42497 0)
(-0.63578 -0.35404 0)
(-0.72855 -0.27032 0)
(-0.79499 -0.17683 0)
(-0.83269 -0.076941 0)
(-0.8403 0.025725 0)
(-0.81754 0.12746 0)
(-0.76523 0.22459 0)
(-0.68526 0.3136 0)
(-0.58053 0.39128 0)
(-0.45482 0.45482 0)
(-0.31266 0.50191 0)
(-0.15921 0.53087 0)
(-7.5538e-11 0.54064 0)
(0.15921 0.53087 0)
(0.31266 0.50191 0)
(0.45482 0.45482 0)
(0.58053 0.39128 0)
(0.68526 0.3136 0)
(0.76523 0.22459 0)
(0.81754 0.12746 0)
(0.8403 0.025725 0)
(0.83269 -0.076941 0)
(0.79499 -0.17683 0)
(0.72855 -0.27032 0)
(0.63578 -0.35404 0)
(0.52003 -0.42497 0)
(0.38548 -0.48054 0)
(0.23701 -0.51874 0)
(0.079966 -0.53819 0)
(-0.088247 -0.36998 0)
(-0.26155 -0.35661 0)
(-0.4254 -0.33035 0)
(-0.57388 -0.29215 0)
(-0.70161 -0.24339 0)
(-0.80399 -0.18583 0)
(-0.87731 -0.12156 0)
(-0.91892 -0.052893 0)
(-0.92732 0.017684 0)
(-0.9022 0.087623 0)
(-0.84447 0.15439 0)
(-0.75623 0.21559 0)
(-0.64065 0.26898 0)
(-0.50191 0.31266 0)
(-0.34504 0.34504 0)
(-0.17569 0.36495 0)
(-8.3362e-11 0.37166 0)
(0.17569 0.36495 0)
(0.34504 0.34504 0)
(0.50191 0.31266 0)
(0.64065 0.26898 0)
(0.75623 0.21559 0)
(0.84447 0.15439 0)
(0.9022 0.087623 0)
(0.92732 0.017684 0)
(0.91892 -0.052893 0)
(0.87731 -0.12156 0)
(0.80399 -0.18583 0)
(0.70161 -0.24339 0)
(0.57388 -0.29215 0)
(0.4254 -0.33035 0)
(0.26155 -0.35661 0)
(0.088247 -0.36998 0)
(-0.093338 -0.18839 0)
(-0.27664 -0.18159 0)
(-0.44995 -0.16821 0)
(-0.60699 -0.14876 0)
(-0.74209 -0.12393 0)
(-0.85038 -0.094626 0)
(-0.92792 -0.061898 0)
(-0.97193 -0.026933 0)
(-0.98082 0.0090049 0)
(-0.95425 0.044618 0)
(-0.89319 0.078618 0)
(-0.79986 0.10978 0)
(-0.67761 0.13697 0)
(-0.53087 0.15921 0)
(-0.36495 0.17569 0)
(-0.18583 0.18583 0)
(-8.817e-11 0.18925 0)
(0.18583 0.18583 0)
(0.36495 0.17569 0)
(0.53087 0.15921 0)
(0.67761 0.13697 0)
(0.79986 0.10978 0)
(0.89319 0.078618 0)
(0.95425 0.044618 0)
(0.98082 0.0090049 0)
(0.97193 -0.026933 0)
(0.92792 -0.061898 0)
(0.85038 -0.094626 0)
(0.74209 -0.12393 0)
(0.60699 -0.14876 0)
(0.44995 -0.16821 0)
(0.27664 -0.18159 0)
(0.093338 -0.18839 0)
(-0.095056 -8.9387e-11 0)
(-0.28173 -8.6156e-11 0)
(-0.45823 -7.9811e-11 0)
(-0.61816 -7.0582e-11 0)
(-0.75575 -5.8802e-11 0)
(-0.86603 -4.4896e-11 0)
(-0.945 -2.9368e-11 0)
(-0.98982 -1.2779e-11 0)
(-0.99887 4.2725e-12 0)
(-0.97181 2.1169e-11 0)
(-0.90963 3.7301e-11 0)
(-0.81458 5.2085e-11 0)
(-0.69008 6.4986e-11 0)
(-0.54064 7.5538e-11 0)
(-0.37166 8.3361e-11 0)
(-0.18925 8.817e-11 0)
(-8.9793e-11 8.9792e-11 0)
(0.18925 8.817e-11 0)
(0.37166 8.3361e-11 0)
(0.54064 7.5539e-11 0)
(0.69008 6.4986e-11 0)
(0.81458 5.2085e-11 0)
(0.90963 3.7301e-11 0)
(0.97181 2.117e-11 0)
(0.99887 4.2725e-12 0)
(0.98982 -1.2779e-11 0)
(0.945 -2.9368e-11 0)
(0.86603 -4.4897e-11 0)
(0.75575 -5.8802e-11 0)
(0.61816 -7.0582e-11 0)
(0.45823 -7.9811e-11 0)
(0.28173 -8.6156e-11 0)
(0.095056 -8.9386e-11 0)
(-0.093338 0.18839 0)
(-0.27664 0.18159 0)
(-0.44995 0.16821 0)
(-0.60699 0.14876 0)
(-0.74209 0.12393 0)
(-0.85038 0.094626 0)
(-0.92792 0.061898 0)
(-0.97193 0.026933 0)
(-0.98082 -0.0090049 0)
(-0.95425 -0.044618 0)
(-0.89319 -0.078618 0)
(-0.79986 -0.10978 0)
(-0.67761 -0.13697 0)
(-0.53087 -0.15921 0)
(-0.36495 -0.17569 0)
(-0.18583 -0.18583 0)
(-8.817e-11 -0.18925 0)
(0.18583 -0.18583 0)
(0.36495 -0.17569 0)
(0.53087 -0.15921 0)
(0.67761 -0.13697 0)
(0.79986 -0.10978 0)
(0.89319 -0.078618 0)
(0.95425 -0.044618 0)
(0.98082 -0.0090049 0)
(0.97193 0.026933 0)
(0.92792 0.061898 0)
(0.85038 0.094626 0)
(0.74209 0.12393 0)
(0.60699 0.14876 0)
(0.44995 0.16821 0)
(0.27664 0.18159 0)
(0.093338 0.18839 0)
(-0.088247 0.36998 0)
(-0.26155 0.35661 0)
(-0.4254 0.33035 0)
(-0.57388 0.29215 0)
(-0.70161 0.24339 0)
(-0.80399 0.18583 0)
(-0.87731 0.12156 0)
(-0.91892 0.052893 0)
(-0.92732 -0.017684 0)
(-0.9022 -0.087623 0)
(-0.84447 -0.15439 0)
(-0.75623 -0.21559 0)
(-0.64065 -0.26898 0)
(-0.50191 -0.31266 0)
(-0.34504 -0.34504 0)
(-0.17569 -0.36495 0)
(-8.3361e-11 -0.37166 0)
(0.17569 -0.36495 0)
(0.34504 -0.34504 0)
(0.50191 -0.31266 0)
(0.64065 -0.26898 0)
(0.75623 -0.21559 0)
(0.84447 -0.15439 0)
(0.9022 -0.087623 0)
(0.92732 -0.017684 0)
(0.91892 0.052893 0)
(0.87731 0.12156 0)
(0.80399 0.18583 0)
(0.70161 0.24339 0)
(0.57388 0.29215 0)
(0.4254 0.33035 0)
(0.26155 0.35661 0)
(0.088247 0.36998 0)
(-0.079966 0.53819 0)
(-0.23701 0.51874 0)
(-0.38548 0.48054 0)
(-0.52003 0.42497 0)
(-0.63578 0.35404 0)
(-0.72855 0.27032 0)
(-0.79499 0.17683 0)
(-0.83269 0.076941 0)
(-0.8403 -0.025725 0)
(-0.81754 -0.12746 0)
(-0.76523 -0.22459 0)
(-0.68526 -0.3136 0)
(-0.58053 -0.39128 0)
(-0.45482 -0.45482 0)
(-0.31266 -0.50191 0)
(-0.15921 -0.53087 0)
(-7.5539e-11 -0.54064 0)
(0.15921 -0.53087 0)
(0.31266 -0.50191 0)
(0.45482 -0.45482 0)
(0.58053 -0.39128 0)
(0.68526 -0.3136 0)
(0.76523 -0.22459 0)
(0.81754 -0.12746 0)
(0.8403 -0.025725 0)
(0.83269 0.076941 0)
(0.79499 0.17683 0)
(0.72855 0.27032 0)
(0.63578 0.35404 0)
(0.52003 0.42497 0)
(0.38548 0.48054 0)
(0.23701 0.51874 0)
(0.079966 0.53819 0)
(-0.068795 0.68695 0)
(-0.2039 0.66213 0)
(-0.33163 0.61337 0)
(-0.44738 0.54244 0)
(-0.54696 0.45191 0)
(-0.62677 0.34504 0)
(-0.68393 0.2257 0)
(-0.71637 0.098208 0)
(-0.72291 -0.032835 0)
(-0.70333 -0.16269 0)
(-0.65833 -0.28667 0)
(-0.58954 -0.40029 0)
(-0.49943 -0.49943 0)
(-0.39128 -0.58053 0)
(-0.26898 -0.64065 0)
(-0.13697 -0.67761 0)
(-6.4986e-11 -0.69008 0)
(0.13697 -0.67761 0)
(0.26898 -0.64065 0)
(0.39128 -0.58053 0)
(0.49943 -0.49943 0)
(0.58954 -0.40029 0)
(0.65833 -0.28667 0)
(0.70333 -0.16269 0)
(0.72291 -0.032835 0)
(0.71637 0.098208 0)
(0.68393 0.2257 0)
(0.62677 0.34504 0)
(0.54696 0.45191 0)
(0.44738 0.54244 0)
(0.33163 0.61337 0)
(0.2039 0.66213 0)
(0.068795 0.68695 0)
(-0.055138 0.81089 0)
(-0.16342 0.78158 0)
(-0.2658 0.72402 0)
(-0.35857 0.6403 0)
(-0.43838 0.53343 0)
(-0.50234 0.40729 0)
(-0.54815 0.26642 0)
(-0.57415 0.11593 0)
(-0.5794 -0.038759 0)
(-0.56371 -0.19204 0)
(-0.52764 -0.33839 0)
(-0.4725 -0.4725 0)
(-0.40029 -0.58954 0)
(-0.3136 -0.68526 0)
(-0.21559 -0.75623 0)
(-0.10978 -0.79986 0)
(-5.2085e-11 -0.81458 0)
(0.10978 -0.79986 0)
(0.21559 -0.75623 0)
(0.3136 -0.68526 0)
(0.40029 -0.58954 0)
(0.4725 -0.4725 0)
(0.52764 -0.33839 0)
(0.56371 -0.19204 0)
(0.5794 -0.038759 0)
(0.57415 0.11593 0)
(0.54815 0.26642 0)
(0.50234 0.40729 0)
(0.43838 0.53343 0)
(0.35857 0.6403 0)
(0.2658 0.72402 0)
(0.16342 0.78158 0)
(0.055138 0.81089 0)
(-0.039488 0.90551 0)
(-0.11704 0.87279 0)
(-0.19035 0.80851 0)
(-0.25679 0.71502 0)
(-0.31395 0.59568 0)
(-0.35976 0.45482 0)
(-0.39257 0.29751 0)
(-0.41119 0.12945 0)
(-0.41494 -0.043282 0)
(-0.40371 -0.21445 0)
(-0.37787 -0.37787 0)
(-0.33839 -0.52764 0)
(-0.28667 -0.65833 0)
(-0.22459 -0.76523 0)
(-0.15439 -0.84447 0)
(-0.078618 -0.89319 0)
(-3.7301e-11 -0.90963 0)
(0.078618 -0.89319 0)
(0.15439 -0.84447 0)
(0.22459 -0.76523 0)
(0.28667 -0.65833 0)
(0.33839 -0.52764 0)
(0.37787 -0.37787 0)
(0.40371 -0.21445 0)
(0.41494 -0.043282 0)
(0.41119 0.12945 0)
(0.39257 0.29751 0)
(0.35976 0.45482 0)
(0.31395 0.59568 0)
(0.25679 0.71502 0)
(0.19035 0.80851 0)
(0.11704 0.87279 0)
(0.039488 0.90551 0)
(-0.02241 0.96741 0)
(-0.066421 0.93245 0)
(-0.10803 0.86378 0)
(-0.14574 0.7639 0)
(-0.17817 0.6364 0)
(-0.20417 0.48591 0)
(-0.22279 0.31785 0)
(-0.23336 0.1383 0)
(-0.23549 -0.046241 0)
(-0.22911 -0.22911 0)
(-0.21445 -0.40371 0)
(-0.19204 -0.56371 0)
(-0.16269 -0.70333 0)
(-0.12746 -0.81754 0)
(-0.087623 -0.9022 0)
(-0.044618 -0.95425 0)
(-2.117e-11 -0.97181 0)
(0.044618 -0.95425 0)
(0.087623 -0.9022 0)
(0.12746 -0.81754 0)
(0.16269 -0.70333 0)
(0.19204 -0.56371 0)
(0.21445 -0.40371 0)
(0.22911 -0.22911 0)
(0.23549 -0.046241 0)
(0.23336 0.1383 0)
(0.22279 0.31785 0)
(0.20417 0.48591 0)
(0.17817 0.6364 0)
(0.14574 0.7639 0)
(0.10803 0.86378 0)
(0.066421 0.93245 0)
(0.02241 0.96741 0)
(-0.0045229 0.99434 0)
(-0.013405 0.95841 0)
(-0.021803 0.88783 0)
(-0.029413 0.78516 0)
(-0.03596 0.65412 0)
(-0.041207 0.49943 0)
(-0.044965 0.3267 0)
(-0.047098 0.14215 0)
(-0.047528 -0.047528 0)
(-0.046241 -0.23549 0)
(-0.043282 -0.41494 0)
(-0.038759 -0.5794 0)
(-0.032835 -0.72291 0)
(-0.025725 -0.8403 0)
(-0.017684 -0.92732 0)
(-0.0090049 -0.98082 0)
(-4.2725e-12 -0.99887 0)
(0.0090049 -0.98082 0)
(0.017684 -0.92732 0)
(0.025725 -0.8403 0)
(0.032835 -0.72291 0)
(0.038759 -0.5794 0)
(0.043282 -0.41494 0)
(0.046241 -0.23549 0)
(0.047528 -0.047528 0)
(0.047098 0.14215 0)
(0.044965 0.3267 0)
(0.041207 0.49943 0)
(0.03596 0.65412 0)
(0.029413 0.78516 0)
(0.021803 0.88783 0)
(0.013405 0.95841 0)
(0.0045229 0.99434 0)
(0.013528 0.98534 0)
(0.040095 0.94973 0)
(0.065212 0.87979 0)
(0.087973 0.77805 0)
(0.10755 0.6482 0)
(0.12325 0.49491 0)
(0.13449 0.32374 0)
(0.14087 0.14087 0)
(0.14215 -0.047098 0)
(0.1383 -0.23336 0)
(0.12945 -0.41119 0)
(0.11593 -0.57415 0)
(0.098208 -0.71637 0)
(0.076941 -0.83269 0)
(0.052893 -0.91892 0)
(0.026933 -0.97193 0)
(1.2779e-11 -0.98982 0)
(-0.026933 -0.97193 0)
(-0.052893 -0.91892 0)
(-0.076941 -0.83269 0)
(-0.098208 -0.71637 0)
(-0.11593 -0.57415 0)
(-0.12945 -0.41119 0)
(-0.1383 -0.23336 0)
(-0.14215 -0.047098 0)
(-0.14087 0.14087 0)
(-0.13449 0.32374 0)
(-0.12325 0.49491 0)
(-0.10755 0.6482 0)
(-0.087973 0.77805 0)
(-0.065212 0.87979 0)
(-0.040095 0.94973 0)
(-0.013528 0.98534 0)
(0.03109 0.94072 0)
(0.092146 0.90672 0)
(0.14987 0.83995 0)
(0.20218 0.74282 0)
(0.24718 0.61884 0)
(0.28325 0.4725 0)
(0.30908 0.30908 0)
(0.32374 0.13449 0)
(0.3267 -0.044965 0)
(0.31785 -0.22279 0)
(0.29751 -0.39257 0)
(0.26642 -0.54815 0)
(0.2257 -0.68393 0)
(0.17683 -0.79499 0)
(0.12156 -0.87731 0)
(0.061898 -0.92792 0)
(2.9368e-11 -0.945 0)
(-0.061898 -0.92792 0)
(-0.12156 -0.87731 0)
(-0.17683 -0.79499 0)
(-0.2257 -0.68393 0)
(-0.26642 -0.54815 0)
(-0.29751 -0.39257 0)
(-0.31785 -0.22279 0)
(-0.3267 -0.044965 0)
(-0.32374 0.13449 0)
(-0.30908 0.30908 0)
(-0.28325 0.4725 0)
(-0.24718 0.61884 0)
(-0.20218 0.74282 0)
(-0.14987 0.83995 0)
(-0.092146 0.90672 0)
(-0.03109 0.94072 0)
(0.047528 0.8621 0)
(0.14087 0.83095 0)
(0.22911 0.76975 0)
(0.30908 0.68074 0)
(0.37787 0.56713 0)
(0.43301 0.43301 0)
(0.4725 0.28325 0)
(0.49491 0.12325 0)
(0.49943 -0.041207 0)
(0.48591 -0.20417 0)
(0.45482 -0.35976 0)
(0.40729 -0.50234 0)
(0.34504 -0.62677 0)
(0.27032 -0.72855 0)
(0.18583 -0.80399 0)
(0.094626 -0.85038 0)
(4.4897e-11 -0.86603 0)
(-0.094626 -0.85038 0)
(-0.18583 -0.80399 0)
(-0.27032 -0.72855 0)
(-0.34504 -0.62677 0)
(-0.40729 -0.50234 0)
(-0.45482 -0.35976 0)
(-0.48591 -0.20417 0)
(-0.49943 -0.041207 0)
(-0.49491 0.12325 0)
(-0.4725 0.28325 0)
(-0.43301 0.43301 0)
(-0.37787 0.56713 0)
(-0.30908 0.68074 0)
(-0.22911 0.76975 0)
(-0.14087 0.83095 0)
(-0.047528 0.8621 0)
(0.062248 0.75233 0)
(0.1845 0.72514 0)
(0.30007 0.67174 0)
(0.40481 0.59406 0)
(0.49491 0.49491 0)
(0.56713 0.37787 0)
(0.61884 0.24718 0)
(0.6482 0.10755 0)
(0.65412 -0.03596 0)
(0.6364 -0.17817 0)
(0.59568 -0.31395 0)
(0.53343 -0.43838 0)
(0.45191 -0.54696 0)
(0.35404 -0.63578 0)
(0.24339 -0.70161 0)
(0.12393 -0.74209 0)
(5.8802e-11 -0.75575 0)
(-0.12393 -0.74209 0)
(-0.24339 -0.70161 0)
(-0.35404 -0.63578 0)
(-0.45191 -0.54696 0)
(-0.53343 -0.43838 0)
(-0.59568 -0.31395 0)
(-0.6364 -0.17817 0)
(-0.65412 -0.03596 0)
(-0.6482 0.10755 0)
(-0.61884 0.24718 0)
(-0.56713 0.37787 0)
(-0.49491 0.49491 0)
(-0.40481 0.59406 0)
(-0.30007 0.67174 0)
(-0.1845 0.72514 0)
(-0.062248 0.75233 0)
(0.074719 0.61536 0)
(0.22146 0.59312 0)
(0.36019 0.54944 0)
(0.48591 0.48591 0)
(0.59406 0.40481 0)
(0.68074 0.30908 0)
(0.74282 0.20218 0)
(0.77805 0.087973 0)
(0.78516 -0.029413 0)
(0.7639 -0.14574 0)
(0.71502 -0.25679 0)
(0.6403 -0.35857 0)
(0.54244 -0.44738 0)
(0.42497 -0.52003 0)
(0.29215 -0.57388 0)
(0.14876 -0.60699 0)
(7.0582e-11 -0.61816 0)
(-0.14876 -0.60699 0)
(-0.29215 -0.57388 0)
(-0.42497 -0.52003 0)
(-0.54244 -0.44738 0)
(-0.6403 -0.35857 0)
(-0.71502 -0.25679 0)
(-0.7639 -0.14574 0)
(-0.78516 -0.029413 0)
(-0.77805 0.087973 0)
(-0.74282 0.20218 0)
(-0.68074 0.30908 0)
(-0.59406 0.40481 0)
(-0.48591 0.48591 0)
(-0.36019 0.54944 0)
(-0.22146 0.59312 0)
(-0.074719 0.61536 0)
(0.084489 0.45615 0)
(0.25041 0.43967 0)
(0.40729 0.40729 0)
(0.54944 0.36019 0)
(0.67174 0.30007 0)
(0.76975 0.22911 0)
(0.83995 0.14987 0)
(0.87979 0.065212 0)
(0.88783 -0.021803 0)
(0.86378 -0.10803 0)
(0.80851 -0.19035 0)
(0.72402 -0.2658 0)
(0.61337 -0.33163 0)
(0.48054 -0.38548 0)
(0.33035 -0.4254 0)
(0.16821 -0.44995 0)
(7.9811e-11 -0.45823 0)
(-0.16821 -0.44995 0)
(-0.33035 -0.4254 0)
(-0.48054 -0.38548 0)
(-0.61337 -0.33163 0)
(-0.72402 -0.2658 0)
(-0.80851 -0.19035 0)
(-0.86378 -0.10803 0)
(-0.88783 -0.021803 0)
(-0.87979 0.065212 0)
(-0.83995 0.14987 0)
(-0.76975 0.22911 0)
(-0.67174 0.30007 0)
(-0.54944 0.36019 0)
(-0.40729 0.40729 0)
(-0.25041 0.43967 0)
(-0.084489 0.45615 0)
(0.091206 0.28046 0)
(0.27032 0.27032 0)
(0.43967 0.25041 0)
(0.59312 0.22146 0)
(0.72514 0.1845 0)
(0.83095 0.14087 0)
(0.90672 0.092146 0)
(0.94973 0.040095 0)
(0.95841 -0.013405 0)
(0.93245 -0.066421 0)
(0.87279 -0.11704 0)
(0.78158 -0.16342 0)
(0.66213 -0.2039 0)
(0.51874 -0.23701 0)
(0.35661 -0.26155 0)
(0.18159 -0.27664 0)
(8.6156e-11 -0.28173 0)
(-0.18159 -0.27664 0)
(-0.35661 -0.26155 0)
(-0.51874 -0.23701 0)
(-0.66213 -0.2039 0)
(-0.78158 -0.16342 0)
(-0.87279 -0.11704 0)
(-0.93245 -0.066421 0)
(-0.95841 -0.013405 0)
(-0.94973 0.040095 0)
(-0.90672 0.092146 0)
(-0.83095 0.14087 0)
(-0.72514 0.1845 0)
(-0.59312 0.22146 0)
(-0.43967 0.25041 0)
(-0.27032 0.27032 0)
(-0.091206 0.28046 0)
(0.094626 0.094626 0)
(0.28046 0.091206 0)
(0.45615 0.084489 0)
(0.61536 0.074719 0)
(0.75233 0.062248 0)
(0.8621 0.047528 0)
(0.94072 0.03109 0)
(0.98534 0.013528 0)
(0.99434 -0.0045229 0)
(0.96741 -0.02241 0)
(0.90551 -0.039488 0)
(0.81089 -0.055138 0)
(0.68695 -0.068795 0)
(0.53819 -0.079966 0)
(0.36998 -0.088247 0)
(0.18839 -0.093338 0)
(8.9386e-11 -0.095056 0)
(-0.18839 -0.093338 0)
(-0.36998 -0.088247 0)
(-0.53819 -0.079966 0)
(-0.68695 -0.068795 0)
(-0.81089 -0.055138 0)
(-0.90551 -0.039488 0)
(-0.96741 -0.02241 0)
(-0.99434 -0.0045229 0)
(-0.98534 0.013528 0)
(-0.94072 0.03109 0)
(-0.8621 0.047528 0)
(-0.75233 0.062248 0)
(-0.61536 0.074719 0)
(-0.45615 0.084489 0)
(-0.28046 0.091206 0)
(-0.094626 0.094626 0)
)
;

boundaryField
{
    upperBoundary
    {
        type             cyclic;
        value            nonuniform List<vector>
33
(
(0.094626 -0.094626 0)
(0.28046 -0.091206 0)
(0.45615 -0.084489 0)
(0.61536 -0.074719 0)
(0.75233 -0.062248 0)
(0.8621 -0.047528 0)
(0.94072 -0.03109 0)
(0.98534 -0.013528 0)
(0.99434 0.0045229 0)
(0.96741 0.02241 0)
(0.90551 0.039488 0)
(0.81089 0.055138 0)
(0.68695 0.068795 0)
(0.53819 0.079966 0)
(0.36998 0.088247 0)
(0.18839 0.093338 0)
(8.9387e-11 0.095056 0)
(-0.18839 0.093338 0)
(-0.36998 0.088247 0)
(-0.53819 0.079966 0)
(-0.68695 0.068795 0)
(-0.81089 0.055138 0)
(-0.90551 0.039488 0)
(-0.96741 0.02241 0)
(-0.99434 0.0045229 0)
(-0.98534 -0.013528 0)
(-0.94072 -0.03109 0)
(-0.8621 -0.047528 0)
(-0.75233 -0.062248 0)
(-0.61536 -0.074719 0)
(-0.45615 -0.084489 0)
(-0.28046 -0.091206 0)
(-0.094626 -0.094626 0)
)
;
    }
    lowerBoundary
    {
        type             cyclic;
        value            nonuniform List<vector>
33
(
(0.094626 0.094626 0)
(0.28046 0.091206 0)
(0.45615 0.084489 0)
(0.61536 0.074719 0)
(0.75233 0.062248 0)
(0.8621 0.047528 0)
(0.94072 0.03109 0)
(0.98534 0.013528 0)
(0.99434 -0.0045229 0)
(0.96741 -0.02241 0)
(0.90551 -0.039488 0)
(0.81089 -0.055138 0)
(0.68695 -0.068795 0)
(0.53819 -0.079966 0)
(0.36998 -0.088247 0)
(0.18839 -0.093338 0)
(8.9386e-11 -0.095056 0)
(-0.18839 -0.093338 0)
(-0.36998 -0.088247 0)
(-0.53819 -0.079966 0)
(-0.68695 -0.068795 0)
(-0.81089 -0.055138 0)
(-0.90551 -0.039488 0)
(-0.96741 -0.02241 0)
(-0.99434 -0.0045229 0)
(-0.98534 0.013528 0)
(-0.94072 0.03109 0)
(-0.8621 0.047528 0)
(-0.75233 0.062248 0)
(-0.61536 0.074719 0)
(-0.45615 0.084489 0)
(-0.28046 0.091206 0)
(-0.094626 0.094626 0)
)
;
    }
    leftBoundary
    {
        type             cyclic;
        value            nonuniform List<vector>
33
(
(-0.094626 -0.094626 0)
(-0.091206 -0.28046 0)
(-0.084489 -0.45615 0)
(-0.074719 -0.61536 0)
(-0.062248 -0.75233 0)
(-0.047528 -0.8621 0)
(-0.03109 -0.94072 0)
(-0.013528 -0.98534 0)
(0.0045229 -0.99434 0)
(0.02241 -0.96741 0)
(0.039488 -0.90551 0)
(0.055138 -0.81089 0)
(0.068795 -0.68695 0)
(0.079966 -0.53819 0)
(0.088247 -0.36998 0)
(0.093338 -0.18839 0)
(0.095056 -8.9386e-11 0)
(0.093338 0.18839 0)
(0.088247 0.36998 0)
(0.079966 0.53819 0)
(0.068795 0.68695 0)
(0.055138 0.81089 0)
(0.039488 0.90551 0)
(0.02241 0.96741 0)
(0.0045229 0.99434 0)
(-0.013528 0.98534 0)
(-0.03109 0.94072 0)
(-0.047528 0.8621 0)
(-0.062248 0.75233 0)
(-0.074719 0.61536 0)
(-0.084489 0.45615 0)
(-0.091206 0.28046 0)
(-0.094626 0.094626 0)
)
;
    }
    rightBoundary
    {
        type             cyclic;
        value            nonuniform List<vector>
33
(
(0.094626 -0.094626 0)
(0.091206 -0.28046 0)
(0.084489 -0.45615 0)
(0.074719 -0.61536 0)
(0.062248 -0.75233 0)
(0.047528 -0.8621 0)
(0.03109 -0.94072 0)
(0.013528 -0.98534 0)
(-0.0045229 -0.99434 0)
(-0.02241 -0.96741 0)
(-0.039488 -0.90551 0)
(-0.055138 -0.81089 0)
(-0.068795 -0.68695 0)
(-0.079966 -0.53819 0)
(-0.088247 -0.36998 0)
(-0.093338 -0.18839 0)
(-0.095056 -8.9387e-11 0)
(-0.093338 0.18839 0)
(-0.088247 0.36998 0)
(-0.079966 0.53819 0)
(-0.068795 0.68695 0)
(-0.055138 0.81089 0)
(-0.039488 0.90551 0)
(-0.02241 0.96741 0)
(-0.0045229 0.99434 0)
(0.013528 0.98534 0)
(0.03109 0.94072 0)
(0.047528 0.8621 0)
(0.062248 0.75233 0)
(0.074719 0.61536 0)
(0.084489 0.45615 0)
(0.091206 0.28046 0)
(0.094626 0.094626 0)
)
;
    }
    frontAndBack
    {
        type             empty;
        value            nonuniform List<vector>
2178
(
(0 0 0)
(0 0 0)
(0 0 0)
(0 0 0)
(0 0 0)
(0 0 0)
(0 0 0)
(0 0 0)
(0 0 0)
(0 0 0)
(0 0 0)
(0 0 0)
(0 0 0)
(0 0 0)
(0 0 0)
(0 0 0)
(0 0 0)
(0 0 0)
(0 0 0)
(0 0 0)
(0 0 0)
(0 0 0)
(0 0 0)
(0 0 0)
(0 0 0)
(0 0 0)
(0 0 0)
(0 0 0)
(0 0 0)
(0 0 0)
(0 0 0)
(0 0 0)
(0 0 0)
(0 0 0)
(0 0 0)
(0 0 0)
(0 0 0)
(0 0 0)
(0 0 0)
(0 0 0)
(0 0 0)
(0 0 0)
(0 0 0)
(0 0 0)
(0 0 0)
(0 0 0)
(0 0 0)
(0 0 0)
(0 0 0)
(0 0 0)
(0 0 0)
(0 0 0)
(0 0 0)
(0 0 0)
(0 0 0)
(0 0 0)
(0 0 0)
(0 0 0)
(0 0 0)
(0 0 0)
(0 0 0)
(0 0 0)
(0 0 0)
(0 0 0)
(0 0 0)
(0 0 0)
(0 0 0)
(0 0 0)
(0 0 0)
(0 0 0)
(0 0 0)
(0 0 0)
(0 0 0)
(0 0 0)
(0 0 0)
(0 0 0)
(0 0 0)
(0 0 0)
(0 0 0)
(0 0 0)
(0 0 0)
(0 0 0)
(0 0 0)
(0 0 0)
(0 0 0)
(0 0 0)
(0 0 0)
(0 0 0)
(0 0 0)
(0 0 0)
(0 0 0)
(0 0 0)
(0 0 0)
(0 0 0)
(0 0 0)
(0 0 0)
(0 0 0)
(0 0 0)
(0 0 0)
(0 0 0)
(0 0 0)
(0 0 0)
(0 0 0)
(0 0 0)
(0 0 0)
(0 0 0)
(0 0 0)
(0 0 0)
(0 0 0)
(0 0 0)
(0 0 0)
(0 0 0)
(0 0 0)
(0 0 0)
(0 0 0)
(0 0 0)
(0 0 0)
(0 0 0)
(0 0 0)
(0 0 0)
(0 0 0)
(0 0 0)
(0 0 0)
(0 0 0)
(0 0 0)
(0 0 0)
(0 0 0)
(0 0 0)
(0 0 0)
(0 0 0)
(0 0 0)
(0 0 0)
(0 0 0)
(0 0 0)
(0 0 0)
(0 0 0)
(0 0 0)
(0 0 0)
(0 0 0)
(0 0 0)
(0 0 0)
(0 0 0)
(0 0 0)
(0 0 0)
(0 0 0)
(0 0 0)
(0 0 0)
(0 0 0)
(0 0 0)
(0 0 0)
(0 0 0)
(0 0 0)
(0 0 0)
(0 0 0)
(0 0 0)
(0 0 0)
(0 0 0)
(0 0 0)
(0 0 0)
(0 0 0)
(0 0 0)
(0 0 0)
(0 0 0)
(0 0 0)
(0 0 0)
(0 0 0)
(0 0 0)
(0 0 0)
(0 0 0)
(0 0 0)
(0 0 0)
(0 0 0)
(0 0 0)
(0 0 0)
(0 0 0)
(0 0 0)
(0 0 0)
(0 0 0)
(0 0 0)
(0 0 0)
(0 0 0)
(0 0 0)
(0 0 0)
(0 0 0)
(0 0 0)
(0 0 0)
(0 0 0)
(0 0 0)
(0 0 0)
(0 0 0)
(0 0 0)
(0 0 0)
(0 0 0)
(0 0 0)
(0 0 0)
(0 0 0)
(0 0 0)
(0 0 0)
(0 0 0)
(0 0 0)
(0 0 0)
(0 0 0)
(0 0 0)
(0 0 0)
(0 0 0)
(0 0 0)
(0 0 0)
(0 0 0)
(0 0 0)
(0 0 0)
(0 0 0)
(0 0 0)
(0 0 0)
(0 0 0)
(0 0 0)
(0 0 0)
(0 0 0)
(0 0 0)
(0 0 0)
(0 0 0)
(0 0 0)
(0 0 0)
(0 0 0)
(0 0 0)
(0 0 0)
(0 0 0)
(0 0 0)
(0 0 0)
(0 0 0)
(0 0 0)
(0 0 0)
(0 0 0)
(0 0 0)
(0 0 0)
(0 0 0)
(0 0 0)
(0 0 0)
(0 0 0)
(0 0 0)
(0 0 0)
(0 0 0)
(0 0 0)
(0 0 0)
(0 0 0)
(0 0 0)
(0 0 0)
(0 0 0)
(0 0 0)
(0 0 0)
(0 0 0)
(0 0 0)
(0 0 0)
(0 0 0)
(0 0 0)
(0 0 0)
(0 0 0)
(0 0 0)
(0 0 0)
(0 0 0)
(0 0 0)
(0 0 0)
(0 0 0)
(0 0 0)
(0 0 0)
(0 0 0)
(0 0 0)
(0 0 0)
(0 0 0)
(0 0 0)
(0 0 0)
(0 0 0)
(0 0 0)
(0 0 0)
(0 0 0)
(0 0 0)
(0 0 0)
(0 0 0)
(0 0 0)
(0 0 0)
(0 0 0)
(0 0 0)
(0 0 0)
(0 0 0)
(0 0 0)
(0 0 0)
(0 0 0)
(0 0 0)
(0 0 0)
(0 0 0)
(0 0 0)
(0 0 0)
(0 0 0)
(0 0 0)
(0 0 0)